<?xml version="1.0" encoding="UTF-8"?>

<!-- generated on 2023-10-26 18:28:21 by Eclipse SUMO GUI Version 1.18.0
<configuration xmlns:xsi="http://www.w3.org/2001/XMLSchema-instance" xsi:noNamespaceSchemaLocation="http://sumo.dlr.de/xsd/sumoConfiguration.xsd">

    <input>
        <net-file value="fumocrossing.net.xml"/>
        <route-files value="fumocrossing.rou.xml"/>
        <additional-files value="fumocrossing.add.xml"/>
    </input>

    <output>
        <tripinfo-output value="tripinfo.xml"/>
    </output>

    <traci_server>
        <remote-port value="58151"/>
    </traci_server>

</configuration>
-->

<tripinfos xmlns:xsi="http://www.w3.org/2001/XMLSchema-instance" xsi:noNamespaceSchemaLocation="http://sumo.dlr.de/xsd/tripinfo_file.xsd">
    <tripinfo id="f_0.0" depart="0.00" departLane="E2_0" departPos="5.10" departSpeed="0.00" departDelay="0.00" arrival="9.00" arrivalLane="E3_0" arrivalPos="14.33" arrivalSpeed="12.73" duration="9.00" routeLength="77.31" waitingTime="0.00" waitingCount="0" stopTime="0.00" timeLoss="3.10" rerouteNo="0" devices="tripinfo_f_0.0" vType="DEFAULT_VEHTYPE" speedFactor="0.98" vaporized=""/>
    <tripinfo id="f_0.1" depart="2.00" departLane="E0_0" departPos="5.10" departSpeed="0.00" departDelay="0.00" arrival="13.00" arrivalLane="E1_0" arrivalPos="16.33" arrivalSpeed="10.43" duration="11.00" routeLength="88.97" waitingTime="0.00" waitingCount="0" stopTime="0.00" timeLoss="3.07" rerouteNo="0" devices="tripinfo_f_0.1" vType="DEFAULT_VEHTYPE" speedFactor="0.84" vaporized=""/>
    <tripinfo id="f_0.2" depart="5.00" departLane="E0_0" departPos="5.10" departSpeed="0.00" departDelay="1.00" arrival="16.00" arrivalLane="E3_0" arrivalPos="14.33" arrivalSpeed="10.36" duration="11.00" routeLength="75.18" waitingTime="0.00" waitingCount="0" stopTime="0.00" timeLoss="5.52" rerouteNo="0" devices="tripinfo_f_0.2" vType="DEFAULT_VEHTYPE" speedFactor="1.20" vaporized=""/>
    <tripinfo id="f_0.3" depart="8.00" departLane="E0_0" departPos="5.10" departSpeed="0.00" departDelay="2.00" arrival="19.00" arrivalLane="E1_0" arrivalPos="16.33" arrivalSpeed="11.45" duration="11.00" routeLength="88.97" waitingTime="0.00" waitingCount="0" stopTime="0.00" timeLoss="2.52" rerouteNo="0" devices="tripinfo_f_0.3" vType="DEFAULT_VEHTYPE" speedFactor="0.84" vaporized=""/>
    <tripinfo id="f_0.4" depart="11.00" departLane="E0_0" departPos="5.10" departSpeed="0.00" departDelay="3.00" arrival="22.00" arrivalLane="E1_0" arrivalPos="16.33" arrivalSpeed="12.59" duration="11.00" routeLength="88.97" waitingTime="0.00" waitingCount="0" stopTime="0.00" timeLoss="3.73" rerouteNo="0" devices="tripinfo_f_0.4" vType="DEFAULT_VEHTYPE" speedFactor="1.00" vaporized=""/>
    <tripinfo id="f_0.5" depart="14.00" departLane="E0_0" departPos="5.10" departSpeed="0.00" departDelay="4.00" arrival="26.00" arrivalLane="E3_0" arrivalPos="14.33" arrivalSpeed="10.17" duration="12.00" routeLength="75.18" waitingTime="0.00" waitingCount="0" stopTime="0.00" timeLoss="5.96" rerouteNo="0" devices="tripinfo_f_0.5" vType="DEFAULT_VEHTYPE" speedFactor="1.08" vaporized=""/>
    <tripinfo id="f_0.6" depart="17.00" departLane="E0_0" departPos="5.10" departSpeed="0.00" departDelay="5.00" arrival="28.00" arrivalLane="E1_0" arrivalPos="16.33" arrivalSpeed="13.78" duration="11.00" routeLength="88.97" waitingTime="0.00" waitingCount="0" stopTime="0.00" timeLoss="4.23" rerouteNo="0" devices="tripinfo_f_0.6" vType="DEFAULT_VEHTYPE" speedFactor="1.01" vaporized=""/>
    <tripinfo id="f_0.7" depart="20.00" departLane="E0_0" departPos="5.10" departSpeed="0.00" departDelay="6.00" arrival="30.00" arrivalLane="E1_0" arrivalPos="16.33" arrivalSpeed="13.17" duration="10.00" routeLength="88.97" waitingTime="0.00" waitingCount="0" stopTime="0.00" timeLoss="3.43" rerouteNo="0" devices="tripinfo_f_0.7" vType="DEFAULT_VEHTYPE" speedFactor="1.01" vaporized=""/>
    <tripinfo id="f_0.8" depart="23.00" departLane="E0_0" departPos="5.10" departSpeed="0.00" departDelay="7.00" arrival="33.00" arrivalLane="E1_0" arrivalPos="16.33" arrivalSpeed="13.53" duration="10.00" routeLength="88.97" waitingTime="0.00" waitingCount="0" stopTime="0.00" timeLoss="3.05" rerouteNo="0" devices="tripinfo_f_0.8" vType="DEFAULT_VEHTYPE" speedFactor="1.02" vaporized=""/>
    <tripinfo id="f_0.9" depart="26.00" departLane="E0_0" departPos="5.10" departSpeed="0.00" departDelay="8.00" arrival="37.00" arrivalLane="E1_0" arrivalPos="16.33" arrivalSpeed="9.92" duration="11.00" routeLength="88.97" waitingTime="0.00" waitingCount="0" stopTime="0.00" timeLoss="2.41" rerouteNo="0" devices="tripinfo_f_0.9" vType="DEFAULT_VEHTYPE" speedFactor="0.78" vaporized=""/>
    <tripinfo id="f_0.10" depart="29.00" departLane="E0_0" departPos="5.10" departSpeed="0.00" departDelay="9.00" arrival="41.00" arrivalLane="E3_0" arrivalPos="14.33" arrivalSpeed="9.41" duration="12.00" routeLength="75.18" waitingTime="0.00" waitingCount="0" stopTime="0.00" timeLoss="4.63" rerouteNo="0" devices="tripinfo_f_0.10" vType="DEFAULT_VEHTYPE" speedFactor="0.92" vaporized=""/>
    <tripinfo id="f_0.11" depart="32.00" departLane="E0_0" departPos="5.10" departSpeed="0.00" departDelay="10.00" arrival="43.00" arrivalLane="E1_0" arrivalPos="16.33" arrivalSpeed="13.31" duration="11.00" routeLength="88.97" waitingTime="0.00" waitingCount="0" stopTime="0.00" timeLoss="3.78" rerouteNo="0" devices="tripinfo_f_0.11" vType="DEFAULT_VEHTYPE" speedFactor="0.96" vaporized=""/>
    <tripinfo id="f_0.17" depart="34.00" departLane="E2_0" departPos="5.10" departSpeed="0.00" departDelay="0.00" arrival="45.00" arrivalLane="E3_0" arrivalPos="14.33" arrivalSpeed="10.78" duration="11.00" routeLength="77.31" waitingTime="0.00" waitingCount="0" stopTime="0.00" timeLoss="3.21" rerouteNo="0" devices="tripinfo_f_0.17" vType="DEFAULT_VEHTYPE" speedFactor="0.80" vaporized=""/>
    <tripinfo id="f_0.12" depart="35.00" departLane="E0_0" departPos="5.10" departSpeed="0.00" departDelay="11.00" arrival="48.00" arrivalLane="E1_0" arrivalPos="16.33" arrivalSpeed="11.81" duration="13.00" routeLength="88.97" waitingTime="0.00" waitingCount="0" stopTime="0.00" timeLoss="5.24" rerouteNo="0" devices="tripinfo_f_0.12" vType="DEFAULT_VEHTYPE" speedFactor="0.90" vaporized=""/>
    <tripinfo id="f_0.13" depart="38.00" departLane="E0_0" departPos="5.10" departSpeed="0.00" departDelay="12.00" arrival="50.00" arrivalLane="E1_0" arrivalPos="16.33" arrivalSpeed="12.96" duration="12.00" routeLength="88.97" waitingTime="0.00" waitingCount="0" stopTime="0.00" timeLoss="4.38" rerouteNo="0" devices="tripinfo_f_0.13" vType="DEFAULT_VEHTYPE" speedFactor="0.95" vaporized=""/>
    <tripinfo id="f_0.14" depart="41.00" departLane="E0_0" departPos="5.10" departSpeed="0.00" departDelay="13.00" arrival="51.00" arrivalLane="E1_0" arrivalPos="16.33" arrivalSpeed="14.06" duration="10.00" routeLength="88.97" waitingTime="0.00" waitingCount="0" stopTime="0.00" timeLoss="3.79" rerouteNo="0" devices="tripinfo_f_0.14" vType="DEFAULT_VEHTYPE" speedFactor="1.04" vaporized=""/>
    <tripinfo id="f_0.15" depart="44.00" departLane="E0_0" departPos="5.10" departSpeed="0.00" departDelay="14.00" arrival="54.00" arrivalLane="E1_0" arrivalPos="16.33" arrivalSpeed="15.13" duration="10.00" routeLength="88.97" waitingTime="0.00" waitingCount="0" stopTime="0.00" timeLoss="3.19" rerouteNo="0" devices="tripinfo_f_0.15" vType="DEFAULT_VEHTYPE" speedFactor="1.10" vaporized=""/>
    <tripinfo id="f_0.16" depart="47.00" departLane="E0_0" departPos="5.10" departSpeed="0.00" departDelay="15.00" arrival="58.00" arrivalLane="E3_0" arrivalPos="14.33" arrivalSpeed="9.50" duration="11.00" routeLength="75.18" waitingTime="0.00" waitingCount="0" stopTime="0.00" timeLoss="5.24" rerouteNo="0" devices="tripinfo_f_0.16" vType="DEFAULT_VEHTYPE" speedFactor="1.08" vaporized=""/>
    <tripinfo id="f_0.18" depart="50.00" departLane="E0_0" departPos="5.10" departSpeed="0.00" departDelay="14.00" arrival="60.00" arrivalLane="E1_0" arrivalPos="16.33" arrivalSpeed="13.02" duration="10.00" routeLength="88.97" waitingTime="0.00" waitingCount="0" stopTime="0.00" timeLoss="3.52" rerouteNo="0" devices="tripinfo_f_0.18" vType="DEFAULT_VEHTYPE" speedFactor="1.03" vaporized=""/>
    <tripinfo id="f_0.24" depart="48.00" departLane="E2_0" departPos="5.10" departSpeed="0.00" departDelay="0.00" arrival="63.00" arrivalLane="E3_0" arrivalPos="14.33" arrivalSpeed="12.26" duration="15.00" routeLength="77.31" waitingTime="0.00" waitingCount="0" stopTime="0.00" timeLoss="8.23" rerouteNo="0" devices="tripinfo_f_0.24" vType="DEFAULT_VEHTYPE" speedFactor="0.91" vaporized=""/>
    <tripinfo id="f_0.25" depart="51.00" departLane="E2_0" departPos="5.10" departSpeed="0.00" departDelay="1.00" arrival="65.00" arrivalLane="E3_1" arrivalPos="14.33" arrivalSpeed="11.16" duration="14.00" routeLength="77.31" waitingTime="0.00" waitingCount="0" stopTime="0.00" timeLoss="6.95" rerouteNo="0" devices="tripinfo_f_0.25" vType="DEFAULT_VEHTYPE" speedFactor="0.89" vaporized=""/>
    <tripinfo id="f_0.26" depart="54.00" departLane="E2_0" departPos="5.10" departSpeed="0.00" departDelay="2.00" arrival="65.00" arrivalLane="E3_0" arrivalPos="14.33" arrivalSpeed="11.73" duration="11.00" routeLength="77.31" waitingTime="0.00" waitingCount="0" stopTime="0.00" timeLoss="3.76" rerouteNo="0" devices="tripinfo_f_0.26" vType="DEFAULT_VEHTYPE" speedFactor="0.87" vaporized=""/>
    <tripinfo id="f_0.19" depart="53.00" departLane="E0_0" departPos="5.10" departSpeed="0.00" departDelay="15.00" arrival="68.00" arrivalLane="E1_0" arrivalPos="16.33" arrivalSpeed="13.09" duration="15.00" routeLength="88.97" waitingTime="1.00" waitingCount="1" stopTime="0.00" timeLoss="8.36" rerouteNo="0" devices="tripinfo_f_0.19" vType="DEFAULT_VEHTYPE" speedFactor="1.04" vaporized=""/>
    <tripinfo id="f_0.20" depart="56.00" departLane="E0_0" departPos="5.10" departSpeed="0.00" departDelay="16.00" arrival="69.00" arrivalLane="E3_0" arrivalPos="14.33" arrivalSpeed="10.73" duration="13.00" routeLength="75.18" waitingTime="0.00" waitingCount="0" stopTime="0.00" timeLoss="6.70" rerouteNo="0" devices="tripinfo_f_0.20" vType="DEFAULT_VEHTYPE" speedFactor="1.01" vaporized=""/>
    <tripinfo id="f_0.21" depart="59.00" departLane="E0_0" departPos="5.10" departSpeed="0.00" departDelay="17.00" arrival="72.00" arrivalLane="E1_0" arrivalPos="16.33" arrivalSpeed="12.67" duration="13.00" routeLength="88.97" waitingTime="0.00" waitingCount="0" stopTime="0.00" timeLoss="5.76" rerouteNo="0" devices="tripinfo_f_0.21" vType="DEFAULT_VEHTYPE" speedFactor="0.98" vaporized=""/>
    <tripinfo id="f_0.22" depart="62.00" departLane="E0_0" departPos="5.10" departSpeed="0.00" departDelay="18.00" arrival="74.00" arrivalLane="E1_0" arrivalPos="16.33" arrivalSpeed="13.16" duration="12.00" routeLength="88.97" waitingTime="0.00" waitingCount="0" stopTime="0.00" timeLoss="4.91" rerouteNo="0" devices="tripinfo_f_0.22" vType="DEFAULT_VEHTYPE" speedFactor="1.03" vaporized=""/>
    <tripinfo id="f_0.23" depart="65.00" departLane="E0_0" departPos="5.10" departSpeed="0.00" departDelay="19.00" arrival="75.00" arrivalLane="E1_0" arrivalPos="16.33" arrivalSpeed="12.53" duration="10.00" routeLength="88.97" waitingTime="0.00" waitingCount="0" stopTime="0.00" timeLoss="3.32" rerouteNo="0" devices="tripinfo_f_0.23" vType="DEFAULT_VEHTYPE" speedFactor="0.96" vaporized=""/>
    <tripinfo id="f_0.34" depart="68.00" departLane="E2_0" departPos="5.10" departSpeed="0.00" departDelay="0.00" arrival="78.00" arrivalLane="E1_2" arrivalPos="16.33" arrivalSpeed="8.91" duration="10.00" routeLength="70.27" waitingTime="0.00" waitingCount="0" stopTime="0.00" timeLoss="4.36" rerouteNo="0" devices="tripinfo_f_0.34" vType="DEFAULT_VEHTYPE" speedFactor="0.99" vaporized=""/>
    <tripinfo id="f_0.32" depart="64.00" departLane="E2_0" departPos="5.10" departSpeed="0.00" departDelay="0.00" arrival="79.00" arrivalLane="E3_0" arrivalPos="14.33" arrivalSpeed="11.92" duration="15.00" routeLength="77.31" waitingTime="0.00" waitingCount="0" stopTime="0.00" timeLoss="9.14" rerouteNo="0" devices="tripinfo_f_0.32" vType="DEFAULT_VEHTYPE" speedFactor="1.08" vaporized=""/>
    <tripinfo id="f_0.27" depart="68.00" departLane="E0_0" departPos="5.10" departSpeed="0.00" departDelay="14.00" arrival="82.00" arrivalLane="E1_0" arrivalPos="16.33" arrivalSpeed="9.52" duration="14.00" routeLength="88.97" waitingTime="0.00" waitingCount="0" stopTime="0.00" timeLoss="4.92" rerouteNo="0" devices="tripinfo_f_0.27" vType="DEFAULT_VEHTYPE" speedFactor="0.76" vaporized=""/>
    <tripinfo id="f_0.28" depart="71.00" departLane="E0_0" departPos="5.10" departSpeed="0.00" departDelay="15.00" arrival="83.00" arrivalLane="E1_0" arrivalPos="16.33" arrivalSpeed="12.93" duration="12.00" routeLength="88.97" waitingTime="0.00" waitingCount="0" stopTime="0.00" timeLoss="6.27" rerouteNo="0" devices="tripinfo_f_0.28" vType="DEFAULT_VEHTYPE" speedFactor="1.12" vaporized=""/>
    <tripinfo id="f_0.29" depart="74.00" departLane="E0_0" departPos="5.10" departSpeed="0.00" departDelay="16.00" arrival="86.00" arrivalLane="E1_0" arrivalPos="16.33" arrivalSpeed="11.87" duration="12.00" routeLength="88.97" waitingTime="0.00" waitingCount="0" stopTime="0.00" timeLoss="3.83" rerouteNo="0" devices="tripinfo_f_0.29" vType="DEFAULT_VEHTYPE" speedFactor="0.89" vaporized=""/>
    <tripinfo id="f_0.30" depart="77.00" departLane="E0_0" departPos="5.10" departSpeed="0.00" departDelay="17.00" arrival="88.00" arrivalLane="E3_0" arrivalPos="14.33" arrivalSpeed="8.70" duration="11.00" routeLength="75.18" waitingTime="0.00" waitingCount="0" stopTime="0.00" timeLoss="4.70" rerouteNo="0" devices="tripinfo_f_0.30" vType="DEFAULT_VEHTYPE" speedFactor="0.97" vaporized=""/>
    <tripinfo id="f_0.31" depart="80.00" departLane="E0_0" departPos="5.10" departSpeed="0.00" departDelay="18.00" arrival="91.00" arrivalLane="E1_0" arrivalPos="16.33" arrivalSpeed="14.76" duration="11.00" routeLength="88.97" waitingTime="0.00" waitingCount="0" stopTime="0.00" timeLoss="4.18" rerouteNo="0" devices="tripinfo_f_0.31" vType="DEFAULT_VEHTYPE" speedFactor="1.09" vaporized=""/>
    <tripinfo id="f_0.33" depart="83.00" departLane="E0_0" departPos="5.10" departSpeed="0.00" departDelay="17.00" arrival="93.00" arrivalLane="E1_0" arrivalPos="16.33" arrivalSpeed="12.29" duration="10.00" routeLength="88.97" waitingTime="0.00" waitingCount="0" stopTime="0.00" timeLoss="3.03" rerouteNo="0" devices="tripinfo_f_0.33" vType="DEFAULT_VEHTYPE" speedFactor="0.94" vaporized=""/>
    <tripinfo id="f_0.35" depart="86.00" departLane="E0_0" departPos="5.10" departSpeed="0.00" departDelay="16.00" arrival="97.00" arrivalLane="E3_0" arrivalPos="14.33" arrivalSpeed="10.06" duration="11.00" routeLength="75.18" waitingTime="0.00" waitingCount="0" stopTime="0.00" timeLoss="4.74" rerouteNo="0" devices="tripinfo_f_0.35" vType="DEFAULT_VEHTYPE" speedFactor="1.01" vaporized=""/>
    <tripinfo id="f_0.41" depart="82.00" departLane="E2_0" departPos="5.10" departSpeed="0.00" departDelay="0.00" arrival="97.00" arrivalLane="E1_2" arrivalPos="16.33" arrivalSpeed="10.41" duration="15.00" routeLength="70.27" waitingTime="2.00" waitingCount="1" stopTime="0.00" timeLoss="8.10" rerouteNo="0" devices="tripinfo_f_0.41" vType="DEFAULT_VEHTYPE" speedFactor="0.93" vaporized=""/>
    <tripinfo id="f_0.36" depart="88.00" departLane="E0_0" departPos="5.10" departSpeed="0.00" departDelay="16.00" arrival="100.00" arrivalLane="E1_0" arrivalPos="16.33" arrivalSpeed="10.46" duration="12.00" routeLength="88.97" waitingTime="0.00" waitingCount="0" stopTime="0.00" timeLoss="3.78" rerouteNo="0" devices="tripinfo_f_0.36" vType="DEFAULT_VEHTYPE" speedFactor="0.83" vaporized=""/>
    <tripinfo id="f_0.37" depart="91.00" departLane="E0_0" departPos="5.10" departSpeed="0.00" departDelay="17.00" arrival="102.00" arrivalLane="E1_0" arrivalPos="16.33" arrivalSpeed="11.71" duration="11.00" routeLength="88.97" waitingTime="0.00" waitingCount="0" stopTime="0.00" timeLoss="3.77" rerouteNo="0" devices="tripinfo_f_0.37" vType="DEFAULT_VEHTYPE" speedFactor="0.90" vaporized=""/>
    <tripinfo id="f_0.47" depart="94.00" departLane="E2_0" departPos="5.10" departSpeed="0.00" departDelay="0.00" arrival="104.00" arrivalLane="E3_0" arrivalPos="14.33" arrivalSpeed="14.46" duration="10.00" routeLength="77.31" waitingTime="0.00" waitingCount="0" stopTime="0.00" timeLoss="4.04" rerouteNo="0" devices="tripinfo_f_0.47" vType="DEFAULT_VEHTYPE" speedFactor="1.06" vaporized=""/>
    <tripinfo id="f_0.38" depart="95.00" departLane="E0_0" departPos="5.10" departSpeed="0.00" departDelay="19.00" arrival="107.00" arrivalLane="E3_0" arrivalPos="14.33" arrivalSpeed="8.29" duration="12.00" routeLength="75.18" waitingTime="0.00" waitingCount="0" stopTime="0.00" timeLoss="4.95" rerouteNo="0" devices="tripinfo_f_0.38" vType="DEFAULT_VEHTYPE" speedFactor="0.91" vaporized=""/>
    <tripinfo id="f_0.39" depart="98.00" departLane="E0_0" departPos="5.10" departSpeed="0.00" departDelay="20.00" arrival="110.00" arrivalLane="E3_0" arrivalPos="14.33" arrivalSpeed="10.46" duration="12.00" routeLength="75.18" waitingTime="0.00" waitingCount="0" stopTime="0.00" timeLoss="5.24" rerouteNo="0" devices="tripinfo_f_0.39" vType="DEFAULT_VEHTYPE" speedFactor="1.07" vaporized=""/>
    <tripinfo id="f_0.40" depart="101.00" departLane="E0_0" departPos="5.10" departSpeed="0.00" departDelay="21.00" arrival="112.00" arrivalLane="E1_0" arrivalPos="16.33" arrivalSpeed="11.59" duration="11.00" routeLength="88.97" waitingTime="0.00" waitingCount="0" stopTime="0.00" timeLoss="3.37" rerouteNo="0" devices="tripinfo_f_0.40" vType="DEFAULT_VEHTYPE" speedFactor="0.90" vaporized=""/>
    <tripinfo id="f_0.42" depart="104.00" departLane="E0_0" departPos="5.10" departSpeed="0.00" departDelay="20.00" arrival="115.00" arrivalLane="E1_0" arrivalPos="16.33" arrivalSpeed="10.33" duration="11.00" routeLength="88.97" waitingTime="0.00" waitingCount="0" stopTime="0.00" timeLoss="2.38" rerouteNo="0" devices="tripinfo_f_0.42" vType="DEFAULT_VEHTYPE" speedFactor="0.77" vaporized=""/>
    <tripinfo id="f_0.53" depart="106.00" departLane="E2_0" departPos="5.10" departSpeed="0.00" departDelay="0.00" arrival="116.00" arrivalLane="E3_0" arrivalPos="14.33" arrivalSpeed="12.99" duration="10.00" routeLength="77.31" waitingTime="0.00" waitingCount="0" stopTime="0.00" timeLoss="3.66" rerouteNo="0" devices="tripinfo_f_0.53" vType="DEFAULT_VEHTYPE" speedFactor="0.94" vaporized=""/>
    <tripinfo id="f_0.43" depart="107.00" departLane="E0_0" departPos="5.10" departSpeed="0.00" departDelay="21.00" arrival="119.00" arrivalLane="E1_0" arrivalPos="16.33" arrivalSpeed="12.68" duration="12.00" routeLength="88.97" waitingTime="0.00" waitingCount="0" stopTime="0.00" timeLoss="4.69" rerouteNo="0" devices="tripinfo_f_0.43" vType="DEFAULT_VEHTYPE" speedFactor="0.95" vaporized=""/>
    <tripinfo id="f_0.44" depart="110.00" departLane="E0_0" departPos="5.10" departSpeed="0.00" departDelay="22.00" arrival="121.00" arrivalLane="E1_0" arrivalPos="16.33" arrivalSpeed="13.43" duration="11.00" routeLength="88.97" waitingTime="0.00" waitingCount="0" stopTime="0.00" timeLoss="3.95" rerouteNo="0" devices="tripinfo_f_0.44" vType="DEFAULT_VEHTYPE" speedFactor="1.02" vaporized=""/>
    <tripinfo id="f_0.45" depart="113.00" departLane="E0_0" departPos="5.10" departSpeed="0.00" departDelay="23.00" arrival="123.00" arrivalLane="E1_0" arrivalPos="16.33" arrivalSpeed="13.76" duration="10.00" routeLength="88.97" waitingTime="0.00" waitingCount="0" stopTime="0.00" timeLoss="3.63" rerouteNo="0" devices="tripinfo_f_0.45" vType="DEFAULT_VEHTYPE" speedFactor="1.07" vaporized=""/>
    <tripinfo id="f_0.54" depart="109.00" departLane="E2_0" departPos="5.10" departSpeed="0.00" departDelay="1.00" arrival="123.00" arrivalLane="E1_2" arrivalPos="16.33" arrivalSpeed="10.64" duration="14.00" routeLength="70.27" waitingTime="0.00" waitingCount="0" stopTime="0.00" timeLoss="8.01" rerouteNo="0" devices="tripinfo_f_0.54" vType="DEFAULT_VEHTYPE" speedFactor="0.96" vaporized=""/>
    <tripinfo id="f_0.46" depart="116.00" departLane="E0_0" departPos="5.10" departSpeed="0.00" departDelay="24.00" arrival="125.00" arrivalLane="E1_0" arrivalPos="16.33" arrivalSpeed="15.36" duration="9.00" routeLength="88.97" waitingTime="0.00" waitingCount="0" stopTime="0.00" timeLoss="3.51" rerouteNo="0" devices="tripinfo_f_0.46" vType="DEFAULT_VEHTYPE" speedFactor="1.19" vaporized=""/>
    <tripinfo id="f_0.59" depart="118.00" departLane="E2_0" departPos="5.10" departSpeed="0.00" departDelay="0.00" arrival="128.00" arrivalLane="E1_2" arrivalPos="16.33" arrivalSpeed="12.15" duration="10.00" routeLength="70.27" waitingTime="0.00" waitingCount="0" stopTime="0.00" timeLoss="4.66" rerouteNo="0" devices="tripinfo_f_0.59" vType="DEFAULT_VEHTYPE" speedFactor="1.15" vaporized=""/>
    <tripinfo id="f_0.48" depart="119.00" departLane="E0_0" departPos="5.10" departSpeed="0.00" departDelay="23.00" arrival="130.00" arrivalLane="E3_0" arrivalPos="14.33" arrivalSpeed="9.24" duration="11.00" routeLength="75.18" waitingTime="0.00" waitingCount="0" stopTime="0.00" timeLoss="4.27" rerouteNo="0" devices="tripinfo_f_0.48" vType="DEFAULT_VEHTYPE" speedFactor="0.90" vaporized=""/>
    <tripinfo id="f_0.49" depart="122.00" departLane="E0_0" departPos="5.10" departSpeed="0.00" departDelay="24.00" arrival="132.00" arrivalLane="E1_0" arrivalPos="16.33" arrivalSpeed="15.83" duration="10.00" routeLength="88.97" waitingTime="0.00" waitingCount="0" stopTime="0.00" timeLoss="4.56" rerouteNo="0" devices="tripinfo_f_0.49" vType="DEFAULT_VEHTYPE" speedFactor="1.19" vaporized=""/>
    <tripinfo id="f_0.50" depart="125.00" departLane="E0_0" departPos="5.10" departSpeed="0.00" departDelay="25.00" arrival="135.00" arrivalLane="E1_0" arrivalPos="16.33" arrivalSpeed="14.55" duration="10.00" routeLength="88.97" waitingTime="0.00" waitingCount="0" stopTime="0.00" timeLoss="3.34" rerouteNo="0" devices="tripinfo_f_0.50" vType="DEFAULT_VEHTYPE" speedFactor="1.05" vaporized=""/>
    <tripinfo id="f_0.51" depart="128.00" departLane="E0_0" departPos="5.10" departSpeed="0.00" departDelay="26.00" arrival="138.00" arrivalLane="E1_0" arrivalPos="16.33" arrivalSpeed="14.58" duration="10.00" routeLength="88.97" waitingTime="0.00" waitingCount="0" stopTime="0.00" timeLoss="3.52" rerouteNo="0" devices="tripinfo_f_0.51" vType="DEFAULT_VEHTYPE" speedFactor="1.07" vaporized=""/>
    <tripinfo id="f_0.52" depart="131.00" departLane="E0_0" departPos="5.10" departSpeed="0.00" departDelay="27.00" arrival="141.00" arrivalLane="E1_0" arrivalPos="16.33" arrivalSpeed="15.04" duration="10.00" routeLength="88.97" waitingTime="0.00" waitingCount="0" stopTime="0.00" timeLoss="3.39" rerouteNo="0" devices="tripinfo_f_0.52" vType="DEFAULT_VEHTYPE" speedFactor="1.10" vaporized=""/>
    <tripinfo id="f_0.66" depart="132.00" departLane="E2_0" departPos="5.10" departSpeed="0.00" departDelay="0.00" arrival="142.00" arrivalLane="E3_0" arrivalPos="14.33" arrivalSpeed="12.80" duration="10.00" routeLength="77.31" waitingTime="0.00" waitingCount="0" stopTime="0.00" timeLoss="3.76" rerouteNo="0" devices="tripinfo_f_0.66" vType="DEFAULT_VEHTYPE" speedFactor="0.96" vaporized=""/>
    <tripinfo id="f_0.55" depart="134.00" departLane="E0_0" departPos="5.10" departSpeed="0.00" departDelay="24.00" arrival="145.00" arrivalLane="E1_0" arrivalPos="16.33" arrivalSpeed="13.08" duration="11.00" routeLength="88.97" waitingTime="0.00" waitingCount="0" stopTime="0.00" timeLoss="3.86" rerouteNo="0" devices="tripinfo_f_0.55" vType="DEFAULT_VEHTYPE" speedFactor="1.00" vaporized=""/>
    <tripinfo id="f_0.56" depart="137.00" departLane="E0_0" departPos="5.10" departSpeed="0.00" departDelay="25.00" arrival="147.00" arrivalLane="E1_0" arrivalPos="16.33" arrivalSpeed="13.48" duration="10.00" routeLength="88.97" waitingTime="0.00" waitingCount="0" stopTime="0.00" timeLoss="3.25" rerouteNo="0" devices="tripinfo_f_0.56" vType="DEFAULT_VEHTYPE" speedFactor="0.98" vaporized=""/>
    <tripinfo id="f_0.69" depart="138.00" departLane="E2_0" departPos="5.10" departSpeed="0.00" departDelay="0.00" arrival="149.00" arrivalLane="E1_2" arrivalPos="16.33" arrivalSpeed="9.64" duration="11.00" routeLength="70.27" waitingTime="0.00" waitingCount="0" stopTime="0.00" timeLoss="5.57" rerouteNo="0" devices="tripinfo_f_0.69" vType="DEFAULT_VEHTYPE" speedFactor="1.12" vaporized=""/>
    <tripinfo id="f_0.57" depart="140.00" departLane="E0_0" departPos="5.10" departSpeed="0.00" departDelay="26.00" arrival="150.00" arrivalLane="E1_0" arrivalPos="16.33" arrivalSpeed="13.86" duration="10.00" routeLength="88.97" waitingTime="0.00" waitingCount="0" stopTime="0.00" timeLoss="3.52" rerouteNo="0" devices="tripinfo_f_0.57" vType="DEFAULT_VEHTYPE" speedFactor="1.03" vaporized=""/>
    <tripinfo id="f_0.58" depart="143.00" departLane="E0_0" departPos="5.10" departSpeed="0.00" departDelay="27.00" arrival="153.00" arrivalLane="E1_0" arrivalPos="16.33" arrivalSpeed="13.04" duration="10.00" routeLength="88.97" waitingTime="0.00" waitingCount="0" stopTime="0.00" timeLoss="3.33" rerouteNo="0" devices="tripinfo_f_0.58" vType="DEFAULT_VEHTYPE" speedFactor="1.00" vaporized=""/>
    <tripinfo id="f_0.60" depart="146.00" departLane="E0_0" departPos="5.10" departSpeed="0.00" departDelay="26.00" arrival="156.00" arrivalLane="E1_0" arrivalPos="16.33" arrivalSpeed="14.62" duration="10.00" routeLength="88.97" waitingTime="0.00" waitingCount="0" stopTime="0.00" timeLoss="3.29" rerouteNo="0" devices="tripinfo_f_0.60" vType="DEFAULT_VEHTYPE" speedFactor="1.09" vaporized=""/>
    <tripinfo id="f_0.61" depart="149.00" departLane="E0_0" departPos="5.10" departSpeed="0.00" departDelay="27.00" arrival="159.00" arrivalLane="E1_0" arrivalPos="16.33" arrivalSpeed="12.49" duration="10.00" routeLength="88.97" waitingTime="0.00" waitingCount="0" stopTime="0.00" timeLoss="3.25" rerouteNo="0" devices="tripinfo_f_0.61" vType="DEFAULT_VEHTYPE" speedFactor="0.96" vaporized=""/>
    <tripinfo id="f_0.62" depart="152.00" departLane="E0_0" departPos="5.10" departSpeed="0.00" departDelay="28.00" arrival="162.00" arrivalLane="E1_0" arrivalPos="16.33" arrivalSpeed="12.81" duration="10.00" routeLength="88.97" waitingTime="0.00" waitingCount="0" stopTime="0.00" timeLoss="2.84" rerouteNo="0" devices="tripinfo_f_0.62" vType="DEFAULT_VEHTYPE" speedFactor="0.94" vaporized=""/>
    <tripinfo id="f_0.63" depart="155.00" departLane="E0_0" departPos="5.10" departSpeed="0.00" departDelay="29.00" arrival="167.00" arrivalLane="E3_0" arrivalPos="14.33" arrivalSpeed="10.54" duration="12.00" routeLength="75.18" waitingTime="0.00" waitingCount="0" stopTime="0.00" timeLoss="6.25" rerouteNo="0" devices="tripinfo_f_0.63" vType="DEFAULT_VEHTYPE" speedFactor="1.17" vaporized=""/>
    <tripinfo id="f_0.64" depart="158.00" departLane="E0_0" departPos="5.10" departSpeed="0.00" departDelay="30.00" arrival="169.00" arrivalLane="E1_0" arrivalPos="16.33" arrivalSpeed="13.01" duration="11.00" routeLength="88.97" waitingTime="0.00" waitingCount="0" stopTime="0.00" timeLoss="3.76" rerouteNo="0" devices="tripinfo_f_0.64" vType="DEFAULT_VEHTYPE" speedFactor="0.95" vaporized=""/>
    <tripinfo id="f_0.65" depart="161.00" departLane="E0_0" departPos="5.10" departSpeed="0.00" departDelay="31.00" arrival="172.00" arrivalLane="E1_0" arrivalPos="16.33" arrivalSpeed="11.89" duration="11.00" routeLength="88.97" waitingTime="0.00" waitingCount="0" stopTime="0.00" timeLoss="2.88" rerouteNo="0" devices="tripinfo_f_0.65" vType="DEFAULT_VEHTYPE" speedFactor="0.88" vaporized=""/>
    <tripinfo id="f_0.67" depart="164.00" departLane="E0_0" departPos="5.10" departSpeed="0.00" departDelay="30.00" arrival="176.00" arrivalLane="E3_0" arrivalPos="14.33" arrivalSpeed="10.28" duration="12.00" routeLength="75.18" waitingTime="0.00" waitingCount="0" stopTime="0.00" timeLoss="4.61" rerouteNo="0" devices="tripinfo_f_0.67" vType="DEFAULT_VEHTYPE" speedFactor="0.93" vaporized=""/>
    <tripinfo id="f_0.68" depart="167.00" departLane="E0_0" departPos="5.10" departSpeed="0.00" departDelay="31.00" arrival="178.00" arrivalLane="E1_0" arrivalPos="16.33" arrivalSpeed="11.98" duration="11.00" routeLength="88.97" waitingTime="0.00" waitingCount="0" stopTime="0.00" timeLoss="3.70" rerouteNo="0" devices="tripinfo_f_0.68" vType="DEFAULT_VEHTYPE" speedFactor="0.92" vaporized=""/>
    <tripinfo id="f_0.70" depart="170.00" departLane="E0_0" departPos="5.10" departSpeed="0.00" departDelay="30.00" arrival="180.00" arrivalLane="E1_0" arrivalPos="16.33" arrivalSpeed="11.84" duration="10.00" routeLength="88.97" waitingTime="0.00" waitingCount="0" stopTime="0.00" timeLoss="3.01" rerouteNo="0" devices="tripinfo_f_0.70" vType="DEFAULT_VEHTYPE" speedFactor="0.93" vaporized=""/>
    <tripinfo id="f_0.71" depart="173.00" departLane="E0_0" departPos="5.10" departSpeed="0.00" departDelay="31.00" arrival="183.00" arrivalLane="E1_0" arrivalPos="16.33" arrivalSpeed="14.60" duration="10.00" routeLength="88.97" waitingTime="0.00" waitingCount="0" stopTime="0.00" timeLoss="3.44" rerouteNo="0" devices="tripinfo_f_0.71" vType="DEFAULT_VEHTYPE" speedFactor="1.08" vaporized=""/>
    <tripinfo id="f_0.87" depart="174.00" departLane="E2_0" departPos="5.10" departSpeed="0.00" departDelay="0.00" arrival="186.00" arrivalLane="E3_0" arrivalPos="14.33" arrivalSpeed="12.66" duration="12.00" routeLength="77.31" waitingTime="0.00" waitingCount="0" stopTime="0.00" timeLoss="5.57" rerouteNo="0" devices="tripinfo_f_0.87" vType="DEFAULT_VEHTYPE" speedFactor="0.98" vaporized=""/>
    <tripinfo id="f_0.72" depart="176.00" departLane="E0_0" departPos="5.10" departSpeed="0.00" departDelay="32.00" arrival="188.00" arrivalLane="E3_0" arrivalPos="14.33" arrivalSpeed="11.55" duration="12.00" routeLength="75.18" waitingTime="0.00" waitingCount="0" stopTime="0.00" timeLoss="6.17" rerouteNo="0" devices="tripinfo_f_0.72" vType="DEFAULT_VEHTYPE" speedFactor="1.13" vaporized=""/>